<?xml version="1.0"?>
<VTKFile type="UnstructuredGrid" version="0.1" byte_order="BigEndian">
<UnstructuredGrid GhostLevel="0">
<Piece NumberOfPoints="7648" NumberOfCells="956" ><Points>
<DataArray type="Float64" NumberOfComponents="3" format="ascii">
0	1000	100	0	1000	80	50	1000	100	50	1000	80	50	950	100	50	950	80	0	950	100	0	950	80	50	1000	100	50	1000	80	100	1000	100	100	1000	80	100	950	100	100	950	80	50	950	100	50	950	80	100	1000	100	100	1000	80	150	1000	100	150	1000	80	150	950	100	150	950	80	100	950	100	100	950	80	150	1000	100	150	1000	80	200	1000	100	200	1000	80	200	950	100	200	950	80	150	950	100	150	950	80	200	1000	100	200	1000	80	250	1000	100	250	1000	80	250	950	100	250	950	80	200	950	100	200	950	80	250	1000	100	250	1000	80	300	1000	100	300	1000	80	300	950	100	300	950	80	250	950	100	250	950	80	300	1000	100	300	1000	80	350	1000	100	350	1000	80	350	950	100	350	950	80	300	950	100	300	950	80	350	1000	100	350	1000	80	400	1000	100	400	1000	80	400	950	100	400	950	80	350	950	100	350	950	80	400	1000	100	400	1000	80	450	1000	100	450	1000	80	450	950	100	450	950	80	400	950	100	400	950	80	450	1000	100	450	1000	80	500	1000	100	500	1000	80	500	950	100	500	950	80	450	950	100	450	950	80	500	1000	100	500	1000	80	550	1000	100	550	1000	80	550	950	100	550	950	80	500	950	100	500	950	80	550	1000	100	550	1000	80	600	1000	100	600	1000	80	600	950	100	600	950	80	550	950	100	550	950	80	600	1000	100	600	1000	80	650	1000	100	650	1000	80	650	950	100	650	950	80	600	950	100	600	950	80	650	1000	100	650	1000	80	700	1000	100	700	1000	80	700	950	100	700	950	80	650	950	100	650	950	80	700	1000	100	700	1000	80	750	1000	100	750	1000	80	750	950	100	750	950	80	700	950	100	700	950	80	750	1000	100	750	1000	80	800	1000	100	800	1000	80	800	950	100	800	950	80	750	950	100	750	950	80	800	1000	100	800	1000	80	850	1000	100	850	1000	80	850	950	100	850	950	80	800	950	100	800	950	80	850	1000	100	850	1000	80	900	1000	100	900	1000	80	900	950	100	900	950	80	850	950	100	850	950	80	900	1000	100	900	1000	80	950	1000	100	950	1000	80	950	950	100	950	950	80	900	950	100	900	950	80	950	1000	100	950	1000	80	1000	1000	100	1000	1000	80	1000	950	100	1000	950	80	950	950	100	950	950	80	0	950	100	0	950	80	50	950	100	50	950	80	50	900	100	50	900	80	0	900	100	0	900	80	50	950	100	50	950	80	100	950	100	100	950	80	100	900	100	100	900	80	50	900	100	50	900	80	100	950	100	100	950	80	150	950	100	150	950	80	150	900	100	150	900	80	100	900	100	100	900	80	150	950	100	150	950	80	200	950	100	200	950	80	200	900	100	200	900	80	150	900	100	150	900	80	200	950	100	200	950	80	250	950	100	250	950	80	250	900	100	250	900	80	200	900	100	200	900	80	250	950	100	250	950	80	300	950	100	300	950	80	300	900	100	300	900	80	250	900	100	250	900	80	300	950	100	300	950	80	350	950	100	350	950	80	350	900	100	350	900	80	300	900	100	300	900	80	350	950	100	350	950	80	400	950	100	400	950	80	400	900	100	400	900	80	350	900	100	350	900	80	400	950	100	400	950	80	450	950	100	450	950	80	450	900	100	450	900	80	400	900	100	400	900	80	450	950	100	450	950	80	500	950	100	500	950	80	500	900	100	500	900	80	450	900	100	450	900	80	500	950	100	500	950	80	550	950	100	550	950	80	550	900	100	550	900	80	500	900	100	500	900	80	550	950	100	550	950	80	600	950	100	600	950	80	600	900	100	600	900	80	550	900	100	550	900	80	600	950	100	600	950	80	650	950	100	650	950	80	650	900	100	650	900	80	600	900	100	600	900	80	650	950	100	650	950	80	700	950	100	700	950	80	700	900	100	700	900	80	650	900	100	650	900	80	700	950	100	700	950	80	750	950	100	750	950	80	750	900	100	750	900	80	700	900	100	700	900	80	750	950	100	750	950	80	800	950	100	800	950	80	800	900	100	800	900	80	750	900	100	750	900	80	800	950	100	800	950	80	850	950	100	850	950	80	850	900	100	850	900	80	800	900	100	800	900	80	850	950	100	850	950	80	900	950	100	900	950	80	900	900	100	900	900	80	850	900	100	850	900	80	900	950	100	900	950	80	950	950	100	950	950	80	950	900	100	950	900	80	900	900	100	900	900	80	950	950	100	950	950	80	1000	950	100	1000	950	80	1000	900	100	1000	900	80	950	900	100	950	900	80	0	900	100	0	900	80	50	900	100	50	900	80	50	850	100	50	850	80	0	850	100	0	850	80	50	900	100	50	900	80	100	900	100	100	900	80	100	850	100	100	850	80	50	850	100	50	850	80	100	900	100	100	900	80	150	900	100	150	900	80	150	850	100	150	850	80	100	850	100	100	850	80	150	900	100	150	900	80	200	900	100	200	900	80	200	850	100	200	850	80	150	850	100	150	850	80	200	900	100	200	900	80	250	900	100	250	900	80	250	850	100	250	850	80	200	850	100	200	850	80	250	900	100	250	900	80	300	900	100	300	900	80	300	850	100	300	850	80	250	850	100	250	850	80	300	900	100	300	900	80	350	900	100	350	900	80	350	850	100	350	850	80	300	850	100	300	850	80	350	900	100	350	900	80	400	900	100	400	900	80	400	850	100	400	850	80	350	850	100	350	850	80	400	900	100	400	900	80	450	900	100	450	900	80	450	850	100	450	850	80	400	850	100	400	850	80	450	900	100	450	900	80	500	900	100	500	900	80	500	850	100	500	850	80	450	850	100	450	850	80	500	900	100	500	900	80	550	900	100	550	900	80	550	850	100	550	850	80	500	850	100	500	850	80	550	900	100	550	900	80	600	900	100	600	900	80	600	850	100	600	850	80	550	850	100	550	850	80	600	900	100	600	900	80	625	900	100	625	900	80	625	875	100	625	875	80	600	875	100	600	875	80	625	900	100	625	900	80	650	900	100	650	900	80	650	875	100	650	875	80	625	875	100	625	875	80	625	875	100	625	875	80	650	875	100	650	875	80	650	850	100	650	850	80	625	850	100	625	850	80	600	875	100	600	875	80	625	875	100	625	875	80	625	850	100	625	850	80	600	850	100	600	850	80	650	900	100	650	900	80	700	900	100	700	900	80	700	850	100	700	850	80	650	850	100	650	850	80	700	900	100	700	900	80	750	900	100	750	900	80	750	850	100	750	850	80	700	850	100	700	850	80	750	900	100	750	900	80	800	900	100	800	900	80	800	850	100	800	850	80	750	850	100	750	850	80	800	900	100	800	900	80	850	900	100	850	900	80	850	850	100	850	850	80	800	850	100	800	850	80	850	900	100	850	900	80	900	900	100	900	900	80	900	850	100	900	850	80	850	850	100	850	850	80	900	900	100	900	900	80	950	900	100	950	900	80	950	850	100	950	850	80	900	850	100	900	850	80	950	900	100	950	900	80	1000	900	100	1000	900	80	1000	850	100	1000	850	80	950	850	100	950	850	80	0	850	100	0	850	80	50	850	100	50	850	80	50	800	100	50	800	80	0	800	100	0	800	80	50	850	100	50	850	80	100	850	100	100	850	80	100	800	100	100	800	80	50	800	100	50	800	80	100	850	100	100	850	80	150	850	100	150	850	80	150	800	100	150	800	80	100	800	100	100	800	80	150	850	100	150	850	80	200	850	100	200	850	80	200	800	100	200	800	80	150	800	100	150	800	80	200	850	100	200	850	80	250	850	100	250	850	80	250	800	100	250	800	80	200	800	100	200	800	80	250	850	100	250	850	80	300	850	100	300	850	80	300	800	100	300	800	80	250	800	100	250	800	80	300	850	100	300	850	80	350	850	100	350	850	80	350	800	100	350	800	80	300	800	100	300	800	80	350	850	100	350	850	80	400	850	100	400	850	80	400	800	100	400	800	80	350	800	100	350	800	80	400	850	100	400	850	80	450	850	100	450	850	80	450	800	100	450	800	80	400	800	100	400	800	80	450	850	100	450	850	80	500	850	100	500	850	80	500	800	100	500	800	80	450	800	100	450	800	80	500	850	100	500	850	80	550	850	100	550	850	80	550	800	100	550	800	80	500	800	100	500	800	80	550	850	100	550	850	80	575	850	100	575	850	80	575	825	100	575	825	80	550	825	100	550	825	80	575	850	100	575	850	80	600	850	100	600	850	80	600	825	100	600	825	80	575	825	100	575	825	80	575	825	100	575	825	80	600	825	100	600	825	80	600	800	100	600	800	80	575	800	100	575	800	80	550	825	100	550	825	80	575	825	100	575	825	80	575	800	100	575	800	80	550	800	100	550	800	80	600	850	100	600	850	80	612.5	850	100	612.5	850	80	612.5	837.5	100	612.5	837.5	80	600	837.5	100	600	837.5	80	612.5	850	100	612.5	850	80	625	850	100	625	850	80	625	837.5	100	625	837.5	80	612.5	837.5	100	612.5	837.5	80	612.5	837.5	100	612.5	837.5	80	618.75	837.5	100	618.75	837.5	80	618.75	831.25	100	618.75	831.25	80	612.5	831.25	100	612.5	831.25	80	618.75	837.5	100	618.75	837.5	80	625	837.5	100	625	837.5	80	625	831.25	100	625	831.25	80	618.75	831.25	100	618.75	831.25	80	618.75	831.25	100	618.75	831.25	80	625	831.25	100	625	831.25	80	625	825	100	625	825	80	618.75	825	100	618.75	825	80	612.5	831.25	100	612.5	831.25	80	618.75	831.25	100	618.75	831.25	80	618.75	825	100	618.75	825	80	612.5	825	100	612.5	825	80	600	837.5	100	600	837.5	80	612.5	837.5	100	612.5	837.5	80	612.5	825	100	612.5	825	80	600	825	100	600	825	80	625	850	100	625	850	80	637.5	850	100	637.5	850	80	637.5	837.5	100	637.5	837.5	80	625	837.5	100	625	837.5	80	637.5	850	100	637.5	850	80	650	850	100	650	850	80	650	837.5	100	650	837.5	80	637.5	837.5	100	637.5	837.5	80	637.5	837.5	100	637.5	837.5	80	650	837.5	100	650	837.5	80	650	825	100	650	825	80	637.5	825	100	637.5	825	80	625	837.5	100	625	837.5	80	631.25	837.5	100	631.25	837.5	80	631.25	831.25	100	631.25	831.25	80	625	831.25	100	625	831.25	80	631.25	837.5	100	631.25	837.5	80	637.5	837.5	100	637.5	837.5	80	637.5	831.25	100	637.5	831.25	80	631.25	831.25	100	631.25	831.25	80	631.25	831.25	100	631.25	831.25	80	637.5	831.25	100	637.5	831.25	80	637.5	825	100	637.5	825	80	631.25	825	100	631.25	825	80	625	831.25	100	625	831.25	80	631.25	831.25	100	631.25	831.25	80	631.25	825	100	631.25	825	80	625	825	100	625	825	80	625	825	100	625	825	80	631.25	825	100	631.25	825	80	631.25	818.75	100	631.25	818.75	80	625	818.75	100	625	818.75	80	631.25	825	100	631.25	825	80	637.5	825	100	637.5	825	80	637.5	818.75	100	637.5	818.75	80	631.25	818.75	100	631.25	818.75	80	631.25	818.75	100	631.25	818.75	80	637.5	818.75	100	637.5	818.75	80	637.5	812.5	100	637.5	812.5	80	631.25	812.5	100	631.25	812.5	80	625	818.75	100	625	818.75	80	631.25	818.75	100	631.25	818.75	80	631.25	812.5	100	631.25	812.5	80	625	812.5	100	625	812.5	80	637.5	825	100	637.5	825	80	650	825	100	650	825	80	650	812.5	100	650	812.5	80	637.5	812.5	100	637.5	812.5	80	637.5	812.5	100	637.5	812.5	80	650	812.5	100	650	812.5	80	650	800	100	650	800	80	637.5	800	100	637.5	800	80	625	812.5	100	625	812.5	80	637.5	812.5	100	637.5	812.5	80	637.5	800	100	637.5	800	80	625	800	100	625	800	80	600	825	100	600	825	80	612.5	825	100	612.5	825	80	612.5	812.5	100	612.5	812.5	80	600	
[...]
<CellData Scalars="scalars">
<DataArray type="Int32" Name="nodeid" format="ascii">1	2	3	4	5	6	7	8	9	10	11	12	13	14	15	16	17	18	19	20	21	22	23	24	25	26	27	28	29	30	31	32	33	34	35	36	37	38	39	40	41	42	43	44	45	46	47	48	49	50	51	52	801	802	804	803	54	55	56	57	58	59	60	61	62	63	64	65	66	67	68	69	70	71	805	806	808	807	813	814	817	818	820	819	815	821	822	824	825	826	828	827	841	842	844	843	838	840	839	829	833	834	836	835	832	831	845	846	848	847	75	76	77	78	79	80	81	82	83	84	85	86	87	88	89	90	91	92	849	850	852	851	94	95	96	97	98	99	100	101	102	103	104	105	106	107	108	109	110	111	112	113	114	115	116	117	118	119	120	121	122	123	124	125	126	127	128	129	130	131	132	133	134	135	136	137	138	139	140	141	142	143	144	145	146	147	148	149	150	151	152	153	154	155	156	157	158	159	160	161	162	163	164	165	166	167	168	169	170	171	172	173	174	175	176	177	178	179	180	181	182	183	184	185	186	187	188	189	190	191	192	193	194	195	196	197	198	199	200	201	202	203	204	205	206	207	208	853	854	856	855	210	211	212	213	214	215	216	217	218	219	220	221	222	223	224	225	226	227	857	858	860	859	865	866	869	870	872	871	867	873	874	876	877	878	880	879	893	894	896	895	890	892	891	881	885	886	888	887	884	883	897	898	900	899	231	232	233	234	235	236	237	238	239	240	241	242	243	244	245	246	247	248	901	902	904	903	250	251	252	253	254	255	256	257	258	259	260	261	262	263	264	265	266	267	268	269	270	271	272	273	274	275	276	277	278	279	280	281	282	283	284	285	286	287	288	289	290	291	292	293	294	295	296	297	298	299	300	301	302	303	304	305	306	307	308	309	310	311	312	313	314	315	316	317	318	319	320	321	322	323	324	325	326	327	328	329	330	331	332	333	334	335	336	337	338	339	340	341	342	343	344	345	346	347	348	349	350	351	352	353	354	355	356	357	358	359	360	361	362	363	364	365	366	367	368	369	370	371	372	373	374	375	376	377	378	379	380	381	382	383	384	385	386	387	388	389	390	391	392	393	394	395	396	397	398	399	400	401	402	403	404	405	406	407	408	409	410	411	412	413	414	415	416	417	418	419	420	421	422	423	424	425	426	427	428	429	430	431	432	433	434	435	436	437	438	439	440	441	442	443	444	445	446	447	448	449	450	451	452	905	906	908	907	454	455	456	457	458	459	460	461	462	463	464	465	466	467	468	469	470	471	909	910	912	911	917	918	921	922	924	923	919	925	926	928	929	930	932	931	945	946	948	947	942	944	943	933	937	938	940	939	936	935	949	950	952	951	475	476	477	478	479	480	481	482	483	484	485	486	487	488	489	490	491	492	953	954	956	955	494	495	496	497	498	499	500	501	502	503	504	505	506	507	508	509	510	511	512	513	514	515	516	517	518	519	520	521	522	523	524	525	526	527	528	529	530	531	532	533	534	535	536	537	538	539	540	541	542	543	544	545	546	547	548	549	550	551	552	553	554	555	556	557	558	559	560	561	562	563	564	565	566	567	568	569	570	571	572	573	574	575	576	577	578	579	580	581	582	583	584	585	586	587	588	589	590	591	592	593	594	595	596	597	598	599	600	601	602	603	604	605	606	607	608	957	958	960	959	610	611	612	613	614	615	616	617	618	619	620	621	622	623	624	625	626	627	961	962	964	963	969	970	973	974	976	975	971	977	978	980	981	982	984	983	997	998	1000	999	994	996	995	985	989	990	992	991	988	987	1001	1002	1004	1003	631	632	633	634	635	636	637	638	639	640	641	642	643	644	645	646	647	648	1005	1006	1008	1007	650	651	652	653	654	655	656	657	658	659	660	661	662	663	664	665	666	667	668	669	670	671	672	673	674	675	676	677	678	679	680	681	682	683	684	685	686	687	688	689	690	691	692	693	694	695	696	697	698	699	700	701	702	703	704	705	706	707	708	709	710	711	712	713	714	715	716	717	718	719	720	721	722	723	724	725	726	727	728	729	730	731	732	733	734	735	736	737	738	739	740	741	742	743	744	745	746	747	748	749	750	751	752	753	754	755	756	757	758	759	760	761	762	763	764	765	766	767	768	769	770	771	772	773	774	775	776	777	778	779	780	781	782	783	784	785	786	787	788	789	790	791	792	793	794	795	796	797	798	799	800	</DataArray>
<DataArray type="Int32" Name="nodenumber" format="ascii">1	2	3	4	5	6	7	8	9	10	11	12	13	14	15	16	17	18	19	20	21	22	23	24	25	26	27	28	29	30	31	32	33	34	35	36	37	38	39	40	41	42	43	44	45	46	47	48	49	50	51	52	53	54	56	55	57	58	59	60	61	62	63	64	65	66	67	68	69	70	71	72	73	74	75	76	78	77	79	80	82	83	85	84	81	86	87	92	88	89	91	90	100	101	103	102	104	106	105	93	94	95	97	96	99	98	107	108	110	109	111	112	113	114	115	116	117	118	119	120	121	122	123	124	125	126	127	128	129	130	132	131	133	134	135	136	137	138	139	140	141	142	143	144	145	146	147	148	149	150	151	152	153	154	155	156	157	158	159	160	161	162	163	164	165	166	167	168	169	170	171	172	173	174	175	176	177	178	179	180	181	182	183	184	185	186	187	188	189	190	191	192	193	194	195	196	197	198	199	200	201	202	203	204	205	206	207	208	209	210	211	212	213	214	215	216	217	218	219	220	221	222	223	224	225	226	227	228	229	230	231	232	233	234	235	236	237	238	239	240	241	242	243	244	245	246	247	248	249	251	250	252	253	254	255	256	257	258	259	260	261	262	263	264	265	266	267	268	269	270	271	273	272	274	275	277	278	280	279	276	281	282	287	283	284	286	285	295	296	298	297	299	301	300	288	289	290	292	291	294	293	302	303	305	304	306	307	308	309	310	311	312	313	314	315	316	317	318	319	320	321	322	323	324	325	327	326	328	329	330	331	332	333	334	335	336	337	338	339	340	341	342	343	344	345	346	347	348	349	350	351	352	353	354	355	356	357	358	359	360	361	362	363	364	365	366	367	368	369	370	371	372	373	374	375	376	377	378	379	380	381	382	383	384	385	386	387	388	389	390	391	392	393	394	395	396	397	398	399	400	401	402	403	404	405	406	407	408	409	410	411	412	413	414	415	416	417	418	419	420	421	422	423	424	425	426	427	428	429	430	431	432	433	434	435	436	437	438	439	440	441	442	443	444	445	446	447	448	449	450	451	452	453	454	455	456	457	458	459	460	461	462	463	464	465	466	467	468	469	470	471	472	473	474	475	476	477	478	479	480	481	482	483	484	485	486	487	488	489	490	491	492	493	494	495	496	497	498	499	500	501	502	503	504	505	506	507	508	509	510	511	512	513	514	515	516	517	518	519	520	521	522	523	524	525	526	527	528	529	530	531	532	534	533	535	536	537	538	539	540	541	542	543	544	545	546	547	548	549	550	551	552	553	554	556	555	557	558	560	561	563	562	559	564	565	570	566	567	569	568	578	579	581	580	582	584	583	571	572	573	575	574	577	576	585	586	588	587	589	590	591	592	593	594	595	596	597	598	599	600	601	602	603	604	605	606	607	608	610	609	611	612	613	614	615	616	617	618	619	620	621	622	623	624	625	626	627	628	629	630	631	632	633	634	635	636	637	638	639	640	641	642	643	644	645	646	647	648	649	650	651	652	653	654	655	656	657	658	659	660	661	662	663	664	665	666	667	668	669	670	671	672	673	674	675	676	677	678	679	680	681	682	683	684	685	686	687	688	689	690	691	692	693	694	695	696	697	698	699	700	701	702	703	704	705	706	707	708	709	710	711	712	713	714	715	716	717	718	719	720	721	722	723	724	725	726	727	729	728	730	731	732	733	734	735	736	737	738	739	740	741	742	743	744	745	746	747	748	749	751	750	752	753	755	756	758	757	754	759	760	765	761	762	764	763	773	774	776	775	777	779	778	766	767	768	770	769	772	771	780	781	783	782	784	785	786	787	788	789	790	791	792	793	794	795	796	797	798	799	800	801	802	803	805	804	806	807	808	809	810	811	812	813	814	815	816	817	818	819	820	821	822	823	824	825	826	827	828	829	830	831	832	833	834	835	836	837	838	839	840	841	842	843	844	845	846	847	848	849	850	851	852	853	854	855	856	857	858	859	860	861	862	863	864	865	866	867	868	869	870	871	872	873	874	875	876	877	878	879	880	881	882	883	884	885	886	887	888	889	890	891	892	893	894	895	896	897	898	899	900	901	902	903	904	905	906	907	908	909	910	911	912	913	914	915	916	917	918	919	920	921	922	923	924	925	926	927	928	929	930	931	932	933	934	935	936	937	938	939	940	941	942	943	944	945	946	947	948	949	950	951	952	953	954	955	956	</DataArray>
<DataArray type="Int32" Name="layer" format="ascii">1	1	1	1	1	1	1	1	1	1	1	1	1	1	1	1	1	1	1	1	1	1	1	1	1	1	1	1	1	1	1	1	1	1	1	1	1	1	1	1	1	1	1	1	1	1	1	1	1	1	1	1	1	1	1	1	1	1	1	1	1	1	1	1	1	1	1	1	1	1	1	1	1	1	1	1	1	1	1	1	1	1	1	1	1	1	1	1	1	1	1	1	1	1	1	1	1	1	1	1	1	1	1	1	1	1	1	1	1	1	1	1	1	1	1	1	1	1	1	1	1	1	1	1	1	1	1	1	1	1	1	1	1	1	1	1	1	1	1	1	1	1	1	1	1	1	1	1	1	1	1	1	1	1	1	1	1	1	1	1	1	1	1	1	1	1	1	1	1	1	1	1	1	1	1	1	1	1	1	1	1	1	1	1	1	1	1	1	1	1	1	1	1	1	1	1	1	1	1	1	1	1	1	1	1	1	1	1	1	1	1	1	1	1	1	1	1	1	1	1	1	1	1	1	1	1	1	1	1	1	1	1	1	1	1	1	1	1	1	1	1	1	1	1	1	1	1	1	1	1	1	1	1	1	1	1	1	1	1	1	1	1	1	1	1	1	1	1	1	1	1	1	1	1	1	1	1	1	1	1	1	1	1	1	1	1	1	1	1	1	1	1	1	1	1	1	1	1	1	1	1	1	1	1	1	1	1	1	1	1	1	1	1	1	1	1	1	1	1	1	1	1	1	1	1	1	1	1	1	1	1	1	1	1	1	1	1	1	1	1	1	1	1	1	1	1	1	1	1	1	1	1	1	1	1	1	1	1	1	1	1	1	1	1	1	1	1	1	1	1	1	1	1	1	1	1	1	1	1	1	1	1	1	1	1	1	1	1	1	1	1	1	1	1	1	1	1	1	1	1	1	1	1	1	1	1	1	1	1	1	1	1	1	1	1	1	1	1	1	1	1	1	1	1	1	1	1	1	1	1	1	1	1	1	1	1	1	1	1	1	1	1	1	1	1	1	1	1	1	1	1	1	1	1	1	1	1	1	1	1	1	1	1	1	1	1	1	1	1	1	1	1	1	1	1	1	1	1	2	2	2	2	2	2	2	2	2	2	2	2	2	2	2	2	2	2	2	2	2	2	2	2	2	2	2	2	2	2	2	2	2	2	2	2	2	2	2	2	2	2	2	2	2	2	2	2	2	2	2	2	2	2	2	2	2	2	2	2	2	2	2	2	2	2	2	2	2	2	2	2	2	2	2	2	2	2	2	2	2	2	2	2	2	2	2	2	2	2	2	2	2	2	2	2	2	2	2	2	2	2	2	2	2	2	2	2	2	2	2	2	2	2	2	2	2	2	2	2	2	2	2	2	2	2	2	2	2	2	2	2	2	2	2	2	2	2	2	2	2	2	2	2	2	2	2	2	2	2	2	2	2	2	2	2	2	2	2	2	2	2	2	2	2	2	2	2	2	2	2	2	2	2	2	2	2	2	2	2	2	2	2	2	2	2	2	2	2	2	2	2	2	2	2	2	2	2	2	2	2	2	2	2	2	2	2	2	2	2	2	2	2	2	2	2	2	2	2	2	2	2	2	2	2	2	2	2	2	2	2	2	2	2	2	2	2	2	2	2	2	2	2	2	2	2	2	2	2	2	2	2	2	2	2	2	2	2	2	2	2	2	2	2	2	2	2	2	2	2	2	2	2	2	2	2	2	2	2	2	2	2	2	2	2	2	2	2	2	2	2	2	2	2	2	2	2	2	2	2	2	2	2	2	2	2	2	2	2	2	2	2	2	2	2	2	2	2	2	2	2	2	2	2	2	2	2	2	2	2	2	2	2	2	2	2	2	2	2	2	2	2	2	2	2	2	2	2	2	2	2	2	2	2	2	2	2	2	2	2	2	2	2	2	2	2	2	2	2	2	2	2	2	2	2	2	2	2	2	2	2	2	2	2	2	2	2	2	2	2	2	2	2	2	2	2	2	2	2	2	2	2	2	2	2	2	2	2	2	2	2	2	2	2	2	2	2	2	2	2	2	2	2	2	2	2	2	2	2	2	2	2	2	2	2	2	2	2	2	2	2	2	2	2	2	2	2	2	2	2	2	2	2	2	2	2	2	2	2	2	2	2	2	2	2	2	2	2	2	2	2	2	2	2	2	2	2	2	</DataArray>
<DataArray type="Int32" Name="row" format="ascii">1	1	1	1	1	1	1	1	1	1	1	1	1	1	1	1	1	1	1	1	2	2	2	2	2	2	2	2	2	2	2	2	2	2	2	2	2	2	2	2	3	3	3	3	3	3	3	3	3	3	3	3	3	3	3	3	3	3	3	3	3	3	3	4	4	4	4	4	4	4	4	4	4	4	4	4	4	4	4	4	4	4	4	4	4	4	4	4	4	4	4	4	4	4	4	4	4	4	4	4	4	4	4	4	4	4	4	4	4	4	4	4	4	4	4	4	5	5	5	5	5	5	5	5	5	5	5	5	5	5	5	5	5	5	5	5	5	5	5	6	6	6	6	6	6	6	6	6	6	6	6	6	6	6	6	6	6	6	6	7	7	7	7	7	7	7	7	7	7	7	7	7	7	7	7	7	7	7	7	8	8	8	8	8	8	8	8	8	8	8	8	8	8	8	8	8	8	8	8	9	9	9	9	9	9	9	9	9	9	9	9	9	9	9	9	9	9	9	9	10	10	10	10	10	10	10	10	10	10	10	10	10	10	10	10	10	10	10	10	11	11	11	11	11	11	11	11	11	11	11	11	11	11	11	11	11	11	11	11	11	11	11	12	12	12	12	12	12	12	12	12	12	12	12	12	12	12	12	12	12	12	12	12	12	12	12	12	12	12	12	12	12	12	12	12	12	12	12	12	12	12	12	12	12	12	12	12	12	12	12	12	12	12	12	12	13	13	13	13	13	13	13	13	13	13	13	13	13	13	13	13	13	13	13	13	13	13	13	14	14	14	14	14	14	14	14	14	14	14	14	14	14	14	14	14	14	14	14	15	15	15	15	15	15	15	15	15	15	15	15	15	15	15	15	15	15	15	15	16	16	16	16	16	16	16	16	16	16	16	16	16	16	16	16	16	16	16	16	17	17	17	17	17	17	17	17	17	17	17	17	17	17	17	17	17	17	17	17	18	18	18	18	18	18	18	18	18	18	18	18	18	18	18	18	18	18	18	18	19	19	19	19	19	19	19	19	19	19	19	19	19	19	19	19	19	19	19	19	20	20	20	20	20	20	20	20	20	20	20	20	20	20	20	20	20	20	20	20	1	1	1	1	1	1	1	1	1	1	1	1	1	1	1	1	1	1	1	1	2	2	2	2	2	2	2	2	2	2	2	2	2	2	2	2	2	2	2	2	3	3	3	3	3	3	3	3	3	3	3	3	3	3	3	3	3	3	3	3	3	3	3	4	4	4	4	4	4	4	4	4	4	4	4	4	4	4	4	4	4	4	4	4	4	4	4	4	4	4	4	4	4	4	4	4	4	4	4	4	4	4	4	4	4	4	4	4	4	4	4	4	4	4	4	4	5	5	5	5	5	5	5	5	5	5	5	5	5	5	5	5	5	5	5	5	5	5	5	6	6	6	6	6	6	6	6	6	6	6	6	6	6	6	6	6	6	6	6	7	7	7	7	7	7	7	7	7	7	7	7	7	7	7	7	7	7	7	7	8	8	8	8	8	8	8	8	8	8	8	8	8	8	8	8	8	8	8	8	9	9	9	9	9	9	9	9	9	9	9	9	9	9	9	9	9	9	9	9	10	10	10	10	10	10	10	10	10	10	10	10	10	10	10	10	10	10	10	10	11	11	11	11	11	11	11	11	11	11	11	11	11	11	11	11	11	11	11	11	11	11	11	12	12	12	12	12	12	12	12	12	12	12	12	12	12	12	12	12	12	12	12	12	12	12	12	12	12	12	12	12	12	12	12	12	12	12	12	12	12	12	12	12	12	12	12	12	12	12	12	12	12	12	12	12	13	13	13	13	13	13	13	13	13	13	13	13	13	13	13	13	13	13	13	13	13	13	13	14	14	14	14	14	14	14	14	14	14	14	14	14	14	14	14	14	14	14	14	15	15	15	15	15	15	15	15	15	15	15	15	15	15	15	15	15	15	15	15	16	16	16	16	16	16	16	16	16	16	16	16	16	16	16	16	16	16	16	16	17	17	17	17	17	17	17	17	17	17	17	17	17	17	17	17	17	17	17	17	18	18	18	18	18	18	18	18	18	18	18	18	18	18	18	18	18	18	18	18	19	19	19	19	19	19	19	19	19	19	19	19	19	19	19	19	19	19	19	19	20	20	20	20	20	20	20	20	20	20	20	20	20	20	20	20	20	20	20	20	</DataArray>
<DataArray type="Int32" Name="col" format="ascii">1	2	3	4	5	6	7	8	9	10	11	12	13	14	15	16	17	18	19	20	1	2	3	4	5	6	7	8	9	10	11	12	13	14	15	16	17	18	19	20	1	2	3	4	5	6	7	8	9	10	11	12	13	13	13	13	14	15	16	17	18	19	20	1	2	3	4	5	6	7	8	9	10	11	12	12	12	12	13	13	13	13	13	13	13	13	13	13	13	13	13	13	13	13	13	13	13	13	13	13	13	13	13	13	13	13	14	14	14	14	15	16	17	18	19	20	1	2	3	4	5	6	7	8	9	10	11	12	13	13	13	13	14	15	16	17	18	19	20	1	2	3	4	5	6	7	8	9	10	11	12	13	14	15	16	17	18	19	20	1	2	3	4	5	6	7	8	9	10	11	12	13	14	15	16	17	18	19	20	1	2	3	4	5	6	7	8	9	10	11	12	13	14	15	16	17	18	19	20	1	2	3	4	5	6	7	8	9	10	11	12	13	14	15	16	17	18	19	20	1	2	3	4	5	6	7	8	9	10	11	12	13	14	15	16	17	18	19	20	1	2	3	4	5	6	7	8	9	9	9	9	10	11	12	13	14	15	16	17	18	19	20	1	2	3	4	5	6	7	8	8	8	8	9	9	9	9	9	9	9	9	9	9	9	9	9	9	9	9	9	9	9	9	9	9	9	9	9	9	9	9	10	10	10	10	11	12	13	14	15	16	17	18	19	20	1	2	3	4	5	6	7	8	9	9	9	9	10	11	12	13	14	15	16	17	18	19	20	1	2	3	4	5	6	7	8	9	10	11	12	13	14	15	16	17	18	19	20	1	2	3	4	5	6	7	8	9	10	11	12	13	14	15	16	17	18	19	20	1	2	3	4	5	6	7	8	9	10	11	12	13	14	15	16	17	18	19	20	1	2	3	4	5	6	7	8	9	10	11	12	13	14	15	16	17	18	19	20	1	2	3	4	5	6	7	8	9	10	11	12	13	14	15	16	17	18	19	20	1	2	3	4	5	6	7	8	9	10	11	12	13	14	15	16	17	18	19	20	1	2	3	4	5	6	7	8	9	10	11	12	13	14	15	16	17	18	19	20	1	2	3	4	5	6	7	8	9	10	11	12	13	14	15	16	17	18	19	20	1	2	3	4	5	6	7	8	9	10	11	12	13	14	15	16	17	18	19	20	1	2	3	4	5	6	7	8	9	10	11	12	13	13	13	13	14	15	16	17	18	19	20	1	2	3	4	5	6	7	8	9	10	11	12	12	12	12	13	13	13	13	13	13	13	13	13	13	13	13	13	13	13	13	13	13	13	13	13	13	13	13	13	13	13	13	14	14	14	14	15	16	17	18	19	20	1	2	3	4	5	6	7	8	9	10	11	12	13	13	13	13	14	15	16	17	18	19	20	1	2	3	4	5	6	7	8	9	10	11	12	13	14	15	16	17	18	19	20	1	2	3	4	5	6	7	8	9	10	11	12	13	14	15	16	17	18	19	20	1	2	3	4	5	6	7	8	9	10	11	12	13	14	15	16	17	18	19	20	1	2	3	4	5	6	7	8	9	10	11	12	13	14	15	16	17	18	19	20	1	2	3	4	5	6	7	8	9	10	11	12	13	14	15	16	17	18	19	20	1	2	3	4	5	6	7	8	9	9	9	9	10	11	12	13	14	15	16	17	18	19	20	1	2	3	4	5	6	7	8	8	8	8	9	9	9	9	9	9	9	9	9	9	9	9	9	9	9	9	9	9	9	9	9	9	9	9	9	9	9	9	10	10	10	10	11	12	13	14	15	16	17	18	19	20	1	2	3	4	5	6	7	8	9	9	9	9	10	11	12	13	14	15	16	17	18	19	20	1	2	3	4	5	6	7	8	9	10	11	12	13	14	15	16	17	18	19	20	1	2	3	4	5	6	7	8	9	10	11	12	13	14	15	16	17	18	19	20	1	2	3	4	5	6	7	8	9	10	11	12	13	14	15	16	17	18	19	20	1	2	3	4	5	6	7	8	9	10	11	12	13	14	15	16	17	18	19	20	1	2	3	4	5	6	7	8	9	10	11	12	13	14	15	16	17	18	19	20	1	2	3	4	5	6	7	8	9	10	11	12	13	14	15	16	17	18	19	20	1	2	3	4	5	6	7	8	9	10	11	12	13	14	15	16	17	18	19	20	</DataArray>
<DataArray type="Int32" Name="vtkid" format="ascii">8	16	24	32	40	48	56	64	72	80	88	96	104	112	120	128	136	144	152	160	168	176	184	192	200	208	216	224	232	240	248	256	264	272	280	288	296	304	312	320	328	336	344	352	360	368	376	384	392	400	408	416	424	432	440	448	456	464	472	480	488	496	504	512	520	528	536	544	552	560	568	576	584	592	600	608	616	624	632	640	648	656	664	672	680	688	696	704	712	720	728	736	744	752	760	768	776	784	792	800	808	816	824	832	840	848	856	864	872	880	888	896	904	912	920	928	936	944	952	960	968	976	984	992	1000	1008	1016	1024	1032	1040	1048	1056	1064	1072	1080	1088	1096	1104	1112	1120	1128	1136	1144	1152	1160	1168	1176	1184	1192	1200	1208	1216	1224	1232	1240	1248	1256	1264	1272	1280	1288	1296	1304	1312	1320	1328	1336	1344	1352	1360	1368	1376	1384	1392	1400	1408	1416	1424	1432	1440	1448	1456	1464	1472	1480	1488	1496	1504	1512	1520	1528	1536	1544	1552	1560	1568	1576	1584	1592	1600	1608	1616	1624	1632	1640	1648	1656	1664	1672	1680	1688	1696	1704	1712	1720	1728	1736	1744	1752	1760	1768	1776	1784	1792	1800	1808	1816	1824	1832	1840	1848	1856	1864	1872	1880	1888	1896	1904	1912	1920	1928	1936	1944	1952	1960	1968	1976	1984	1992	2000	2008	2016	2024	2032	2040	2048	2056	2064	2072	2080	2088	2096	2104	2112	2120	2128	2136	2144	2152	2160	2168	2176	2184	2192	2200	2208	2216	2224	2232	2240	2248	2256	2264	2272	2280	2288	2296	2304	2312	2320	2328	2336	2344	2352	2360	2368	2376	2384	2392	2400	2408	2416	2424	2432	2440	2448	2456	2464	2472	2480	2488	2496	2504	2512	2520	2528	2536	2544	2552	2560	2568	2576	2584	2592	2600	2608	2616	2624	2632	2640	2648	2656	2664	2672	2680	2688	2696	2704	2712	2720	2728	2736	2744	2752	2760	2768	2776	2784	2792	2800	2808	2816	2824	2832	2840	2848	2856	2864	2872	2880	2888	2896	2904	2912	2920	2928	2936	2944	2952	2960	2968	2976	2984	2992	3000	3008	3016	3024	3032	3040	3048	3056	3064	3072	3080	3088	3096	3104	3112	3120	3128	3136	3144	3152	3160	3168	3176	3184	3192	3200	3208	3216	3224	3232	3240	3248	3256	3264	3272	3280	3288	3296	3304	3312	3320	3328	3336	3344	3352	3360	3368	3376	3384	3392	3400	3408	3416	3424	3432	3440	3448	3456	3464	3472	3480	3488	3496	3504	3512	3520	3528	3536	3544	3552	3560	3568	3576	3584	3592	3600	3608	3616	3624	3632	3640	3648	3656	3664	3672	3680	3688	3696	3704	3712	3720	3728	3736	3744	3752	3760	3768	3776	3784	3792	3800	3808	3816	3824	3832	3840	3848	3856	3864	3872	3880	3888	3896	3904	3912	3920	3928	3936	3944	3952	3960	3968	3976	3984	3992	4000	4008	4016	4024	4032	4040	4048	4056	4064	4072	4080	4088	4096	4104	4112	4120	4128	4136	4144	4152	4160	4168	4176	4184	4192	4200	4208	4216	4224	4232	4240	4248	4256	4264	4272	4280	4288	4296	4304	4312	4320	4328	4336	4344	4352	4360	4368	4376	4384	4392	4400	4408	4416	4424	4432	4440	4448	4456	4464	4472	4480	4488	4496	4504	4512	4520	4528	4536	4544	4552	4560	4568	4576	4584	4592	4600	4608	4616	4624	4632	4640	4648	4656	4664	4672	4680	4688	4696	4704	4712	4720	4728	4736	4744	4752	4760	4768	4776	4784	4792	4800	4808	4816	4824	4832	4840	4848	4856	4864	4872	4880	4888	4896	4904	4912	4920	4928	4936	4944	4952	4960	4968	4976	4984	4992	5000	5008	5016	5024	5032	5040	5048	5056	5064	5072	5080	5088	5096	5104	5112	5120	5128	5136	5144	5152	5160	5168	5176	5184	5192	5200	5208	5216	5224	5232	5240	5248	5256	5264	5272	5280	5288	5296	5304	5312	5320	5328	5336	5344	5352	5360	5368	5376	5384	5392	5400	5408	5416	5424	5432	5440	5448	5456	5464	5472	5480	5488	5496	5504	5512	5520	5528	5536	5544	5552	5560	5568	5576	5584	5592	5600	5608	5616	5624	5632	5640	5648	5656	5664	5672	5680	5688	5696	5704	5712	5720	5728	5736	5744	5752	5760	5768	5776	5784	5792	5800	5808	5816	5824	5832	5840	5848	5856	5864	5872	5880	5888	5896	5904	5912	5920	5928	5936	5944	5952	5960	5968	5976	5984	5992	6000	6008	6016	6024	6032	6040	6048	6056	6064	6072	6080	6088	6096	6104	6112	6120	6128	6136	6144	6152	6160	6168	6176	6184	6192	6200	6208	6216	6224	6232	6240	6248	6256	6264	6272	6280	6288	6296	6304	6312	6320	6328	6336	6344	6352	6360	6368	6376	6384	6392	6400	6408	6416	6424	6432	6440	6448	6456	6464	6472	6480	6488	6496	6504	6512	6520	6528	6536	6544	6552	6560	6568	6576	6584	6592	6600	6608	6616	6624	6632	6640	6648	6656	6664	6672	6680	6688	6696	6704	6712	6720	6728	6736	6744	6752	6760	6768	6776	6784	6792	6800	6808	6816	6824	6832	6840	6848	6856	6864	6872	6880	6888	6896	6904	6912	6920	6928	6936	6944	6952	6960	6968	6976	6984	6992	7000	7008	7016	7024	7032	7040	7048	7056	7064	7072	7080	7088	7096	7104	7112	7120	7128	7136	7144	7152	7160	7168	7176	7184	7192	7200	7208	7216	7224	7232	7240	7248	7256	7264	7272	7280	7288	7296	7304	7312	7320	7328	7336	7344	7352	7360	7368	7376	7384	7392	7400	7408	7416	7424	7432	7440	7448	7456	7464	7472	7480	7488	7496	7504	7512	7520	7528	7536	7544	7552	7560	7568	7576	7584	7592	7600	7608	7616	7624	7632	7640	7648	</DataArray>