<?xml version="1.0"?>
<VTKFile type="UnstructuredGrid" version="0.1" byte_order="BigEndian">
<UnstructuredGrid GhostLevel="0">
<Piece NumberOfPoints="1641" NumberOfCells="956" ><Points>
<DataArray type="Float32" NumberOfComponents="3" format="ascii">
0	1000	100	0	950	100	50	1000	100	50	950	100	0	1000	80	0	950	80	50	1000	80	50	950	80	100	1000	100	100	950	100	100	1000	80	100	950	80	150	1000	100	150	950	100	150	1000	80	150	950	80	200	1000	100	200	950	100	200	1000	80	200	950	80	250	1000	100	250	950	100	250	1000	80	250	950	80	300	1000	100	300	950	100	300	1000	80	300	950	80	350	1000	100	350	950	100	350	1000	80	350	950	80	400	1000	100	400	950	100	400	1000	80	400	950	80	450	1000	100	450	950	100	450	1000	80	450	950	80	500	1000	100	500	950	100	500	1000	80	500	950	80	550	1000	100	550	950	100	550	1000	80	550	950	80	600	1000	100	600	950	100	600	1000	80	600	950	80	650	1000	100	650	950	100	650	1000	80	650	950	80	700	1000	100	700	950	100	700	1000	80	700	950	80	750	1000	100	750	950	100	750	1000	80	750	950	80	800	1000	100	800	950	100	800	1000	80	800	950	80	850	1000	100	850	950	100	850	1000	80	850	950	80	900	1000	100	900	950	100	900	1000	80	900	950	80	950	1000	100	950	950	100	950	1000	80	950	950	80	1000	1000	100	1000	950	100	1000	1000	80	1000	950	80	0	900	100	50	900	100	0	900	80	50	900	80	100	900	100	100	900	80	150	900	100	150	900	80	200	900	100	200	900	80	250	900	100	250	900	80	300	900	100	300	900	80	350	900	100	350	900	80	400	900	100	400	900	80	450	900	100	450	900	80	500	900	100	500	900	80	550	900	100	550	900	80	600	900	100	600	900	80	650	900	100	650	900	80	700	900	100	700	900	80	750	900	100	750	900	80	800	900	100	800	900	80	850	900	100	850	900	80	900	900	100	900	900	80	950	900	100	950	900	80	1000	900	100	1000	900	80	0	850	100	50	850	100	0	850	80	50	850	80	100	850	100	100	850	80	150	850	100	150	850	80	200	850	100	200	850	80	250	850	100	250	850	80	300	850	100	300	850	80	350	850	100	350	850	80	400	850	100	400	850	80	450	850	100	450	850	80	500	850	100	500	850	80	550	850	100	550	850	80	600	850	100	600	850	80	650	850	100	700	850	100	650	850	80	700	850	80	750	850	100	750	850	80	800	850	100	800	850	80	850	850	100	850	850	80	900	850	100	900	850	80	950	850	100	950	850	80	1000	850	100	1000	850	80	0	800	100	50	800	100	0	800	80	50	800	80	100	800	100	100	800	80	150	800	100	150	800	80	200	800	100	200	800	80	250	800	100	250	800	80	300	800	100	300	800	80	350	800	100	350	800	80	400	800	100	400	800	80	450	800	100	450	800	80	500	800	100	500	800	80	550	800	100	550	800	80	700	800	100	750	800	100	700	800	80	750	800	80	800	800	100	800	800	80	850	800	100	850	800	80	900	800	100	900	800	80	950	800	100	950	800	80	1000	800	100	1000	800	80	0	750	100	50	750	100	0	750	80	50	750	80	100	750	100	100	750	80	150	750	100	150	750	80	200	750	100	200	750	80	250	750	100	250	750	80	300	750	100	300	750	80	350	750	100	350	750	80	400	750	100	400	750	80	450	750	100	450	750	80	500	750	100	500	750	80	550	750	100	550	750	80	600	800	100	600	750	100	600	800	80	600	750	80	650	800	100	650	750	100	700	750	100	650	800	80	650	750	80	700	750	80	750	750	100	750	750	80	800	750	100	800	750	80	850	750	100	850	750	80	900	750	100	900	750	80	950	750	100	950	750	80	1000	750	100	1000	750	80	0	700	100	50	700	100	0	700	80	50	700	80	100	700	100	100	700	80	150	700	100	150	700	80	200	700	100	200	700	80	250	700	100	250	700	80	300	700	100	300	700	80	350	700	100	350	700	80	400	700	100	400	700	80	450	700	100	450	700	80	500	700	100	500	700	80	550	700	100	550	700	80	600	700	100	600	700	80	650	700	100	650	700	80	700	700	100	700	700	80	750	700	100	750	700	80	800	700	100	800	700	80	850	700	100	850	700	80	900	700	100	900	700	80	950	700	100	950	700	80	1000	700	100	1000	700	80	0	650	100	50	650	100	0	650	80	50	650	80	100	650	100	100	650	80	150	650	100	150	650	80	200	650	100	200	650	80	250	650	100	250	650	80	300	650	100	300	650	80	350	650	100	350	650	80	400	650	100	400	650	80	450	650	100	450	650	80	500	650	100	500	650	80	550	650	100	550	650	80	600	650	100	600	650	80	650	650	100	650	650	80	700	650	100	700	650	80	750	650	100	750	650	80	800	650	100	800	650	80	850	650	100	850	650	80	900	650	100	900	650	80	950	650	100	950	650	80	1000	650	100	1000	650	80	0	600	100	50	600	100	0	600	80	50	600	80	100	600	100	100	600	80	150	600	100	150	600	80	200	600	100	200	600	80	250	600	100	250	600	80	300	600	100	300	600	80	350	600	100	350	600	80	400	600	100	400	600	80	450	600	100	450	600	80	500	600	100	500	600	80	550	600	100	550	600	80	600	600	100	600	600	80	650	600	100	650	600	80	700	600	100	700	600	80	750	600	100	750	600	80	800	600	100	800	600	80	850	600	100	850	600	80	900	600	100	900	600	80	950	600	100	950	600	80	1000	600	100	1000	600	80	0	550	100	50	550	100	0	550	80	50	550	80	100	550	100	100	550	80	150	550	100	150	550	80	200	550	100	200	550	80	250	550	100	250	550	80	300	550	100	300	550	80	350	550	100	350	550	80	400	550	100	400	550	80	450	550	100	450	550	80	500	550	100	500	550	80	550	550	100	550	550	80	600	550	100	600	550	80	650	550	100	650	550	80	700	550	100	700	550	80	750	550	100	750	550	80	800	550	100	800	550	80	850	550	100	850	550	80	900	550	100	900	550	80	950	550	100	950	550	80	1000	550	100	1000	550	80	0	500	100	50	500	100	0	500	80	50	500	80	100	500	100	100	500	80	150	500	100	150	500	80	200	500	100	200	500	80	250	500	100	250	500	80	300	500	100	300	500	80	350	500	100	350	500	80	400	500	100	400	500	80	450	500	100	450	500	80	500	500	100	500	500	80	550	500	100	550	500	80	600	500	100	600	500	80	650	500	100	650	500	80	700	500	100	700	500	80	750	500	100	750	500	80	800	500	100	800	500	80	850	500	100	850	500	80	900	500	100	900	500	80	950	500	100	950	500	80	1000	500	100	1000	500	80	0	450	100	50	450	100	0	450	80	50	450	80	100	450	100	100	450	80	150	450	100	150	450	80	200	450	100	200	450	80	250	450	100	250	450	80	300	450	100	300	450	80	350	450	100	350	450	80	400	450	100	400	450	80	450	450	100	500	450	100	450	450	80	500	450	80	550	450	100	550	450	80	600	450	100	600	450	80	650	450	100	650	450	80	700	450	100	700	450	80	750	450	100	750	450	80	800	450	100	800	450	80	850	450	100	850	450	80	900	450	100	900	450	80	950	450	100	950	450	80	1000	450	100	1000	450	80	0	400	100	50	400	100	0	400	80	50	400	80	100	400	100	100	400	80	150	400	100	150	400	80	200	400	100	200	400	80	250	400	100	250	400	80	300	400	100	300	400	80	350	400	100	350	400	80	500	400	100	550	400	100	500	400	80	550	400	80	600	400	100	600	400	80	650	400	100	650	400	80	700	400	100	700	400	80	750	400	100	750	400	80	800	400	100	800	400	80	850	400	100	850	400	80	900	400	100	900	400	80	950	400	100	950	400	80	1000	400	100	1000	400	80	0	350	100	50	350	100	0	350	80	50	350	80	100	350	100	100	350	80	150	350	100	150	350	80	200	350	100	200	350	80	250	350	100	250	350	80	300	350	100	300	350	80	350	350	100	350	350	80	400	400	100	400	350	100	400	400	80	400	350	80	450	400	100	450	350	100	500	350	100	450	400	80	450	350	80	500	350	80	550	350	100	550	350	80	600	350	100	600	350	80	650	350	100	650	350	80	700	350	100	700	350	80	750	350	100	750	350	80	800	350	100	800	350	80	850	350	100	850	350	80	900	350	100	900	350	80	950	350	100	950	350	80	1000	350	100	1000	350	80	0	300	100	50	300	100	0	300	80	50	300	80	100	300	100	100	300	80	150	300	100	150	300	80	200	300	100	200	300	80	250	300	100	250	300	80	300	300	100	300	300	80	350	300	100	350	300	80	400	300	100	400	300	80	450	300	100	450	300	80	500	300	100	500	300	80	550	300	100	550	300	80	600	300	100	600	300	80	650	300	100	650	300	80	700	300	100	700	300	80	750	300	100	750	300	80	800	300	100	800	300	80	850	300	100	850	300	80	900	300	100	900	300	80	950	300	100	950	300	80	1000	300	100	1000	300	80	0	250	100	50	250	100	0	250	80	50	250	80	100	250	100	100	250	80	150	250	100	150	250	80	200	250	100	200	250	80	250	250	100	250	250	80	300	250	100	300	250	80	350	250	100	350	250	80	400	250	100	400	250	80	450	250	100	450	250	80	500	250	100	500	250	80	550	250	100	550	250	80	600	250	100	600	250	80	650	250	100	650	250	80	700	250	100	700	250	80	750	250	100	750	250	80	800	250	100	800	250	80	850	250	100	850	250	80	900	250	100	900	250	80	950	250	100	950	250	80	1000	250	100	1000	250	80	0	200	100	50	200	100	0	200	80	50	200	80	100	200	100	100	200	80	150	200	100	150	200	80	200	200	100	200	200	80	250	200	100	250	200	80	300	200	100	300	200	80	350	200	100	350	200	80	400	200	100	400	200	80	450	200	100	450	200	80	500	200	100	500	200	80	550	200	100	550	200	80	600	200	100	600	200	80	650	200	100	650	200	80	700	200	100	700	200	80	750	200	100	750	200	80	800	200	100	800	200	80	850	200	100	850	200	80	900	200	100	900	200	80	950	200	100	950	200	80	1000	200	100	1000	200	80	0	150	100	50	150	100	0	150	80	50	150	80	100	150	100	100	150	80	150	150	100	150	150	80	200	150	100	200	150	80	250	150	100	250	150	80	300	150	100	300	150	80	350	150	100	350	150	80	400	150	100	400	150	80	450	150	100	450	150	80	500	150	100	500	150	80	550	150	100	550	150	80	600	150	100	600	150	80	650	150	100	650	150	80	700	150	100	700	150	80	750	150	100	750	150	80	800	150	100	800	150	80	850	150	100	850	150	80	900	150	100	900	150	80	950	150	100	950	150	80	1000	150	100	1000	150	80	0	100	100	50	100	100	0	100	80	50	100	80	100	100	100	100	100	80	150	100	100	150	100	80	200	100	100	200	100	80	250	100	100	250	100	80	300	100	100	300	100	80	350	100	100	350	100	80	400	100	100	400	100	80	450	100	100	450	100	80	500	100	100	500	100	80	550	100	100	550	100	80	600	100	100	600	100	80	650	100	100	650	100	80	700	100	100	700	100	80	750	100	100	750	100	80	800	100	100	800	100	80	850	100	100	850	100	80	900	100	100	900	100	80	950	100	100	950	100	80	1000	100	100	1000	100	80	0	50	100	50	50	100	0	50	80	50	50	80	100	50	100	100	50	80	150	50	100	150	50	80	200	50	100	200	50	80	250	50	100	250	50	80	300	50	100	300	50	80	350	50	100	350	50	80	400	50	100	400	50	80	450	50	100	450	50	80	500	50	100	500	50	80	550	50	100	550	50	80	600	50	100	600	50	80	650	50	100	650	50	80	700	50	100	700	50	80	750	50	100	750	50	80	800	50	100	800	50	80	850	50	100	850	50	80	900	50	100	900	50	80	950	50	100	950	50	80	1000	50	100	1000	50	80	0	0	100	50	0	100	0	0	80	50	0	80	100	0	100	100	0	80	150	0	100	150	0	80	200	0	100	200	0	80	250	0	100	250	0	80	300	0	100	300	0	80	350	0	100	350	0	80	400	0	100	400	0	80	450	
[...]
<CellData Scalars="scalars">
<DataArray type="Int32" Name="nodeid" format="ascii">1	2	3	4	5	6	7	8	9	10	11	12	13	14	15	16	17	18	19	20	21	22	23	24	25	26	27	28	29	30	31	32	33	34	35	36	37	38	39	40	41	42	43	44	45	46	47	48	49	50	51	52	801	802	804	803	54	55	56	57	58	59	60	61	62	63	64	65	66	67	68	69	70	71	805	806	808	807	813	814	817	818	820	819	815	821	822	824	825	826	828	827	841	842	844	843	838	840	839	829	833	834	836	835	832	831	845	846	848	847	75	76	77	78	79	80	81	82	83	84	85	86	87	88	89	90	91	92	849	850	852	851	94	95	96	97	98	99	100	101	102	103	104	105	106	107	108	109	110	111	112	113	114	115	116	117	118	119	120	121	122	123	124	125	126	127	128	129	130	131	132	133	134	135	136	137	138	139	140	141	142	143	144	145	146	147	148	149	150	151	152	153	154	155	156	157	158	159	160	161	162	163	164	165	166	167	168	169	170	171	172	173	174	175	176	177	178	179	180	181	182	183	184	185	186	187	188	189	190	191	192	193	194	195	196	197	198	199	200	201	202	203	204	205	206	207	208	853	854	856	855	210	211	212	213	214	215	216	217	218	219	220	221	222	223	224	225	226	227	857	858	860	859	865	866	869	870	872	871	867	873	874	876	877	878	880	879	893	894	896	895	890	892	891	881	885	886	888	887	884	883	897	898	900	899	231	232	233	234	235	236	237	238	239	240	241	242	243	244	245	246	247	248	901	902	904	903	250	251	252	253	254	255	256	257	258	259	260	261	262	263	264	265	266	267	268	269	270	271	272	273	274	275	276	277	278	279	280	281	282	283	284	285	286	287	288	289	290	291	292	293	294	295	296	297	298	299	300	301	302	303	304	305	306	307	308	309	310	311	312	313	314	315	316	317	318	319	320	321	322	323	324	325	326	327	328	329	330	331	332	333	334	335	336	337	338	339	340	341	342	343	344	345	346	347	348	349	350	351	352	353	354	355	356	357	358	359	360	361	362	363	364	365	366	367	368	369	370	371	372	373	374	375	376	377	378	379	380	381	382	383	384	385	386	387	388	389	390	391	392	393	394	395	396	397	398	399	400	401	402	403	404	405	406	407	408	409	410	411	412	413	414	415	416	417	418	419	420	421	422	423	424	425	426	427	428	429	430	431	432	433	434	435	436	437	438	439	440	441	442	443	444	445	446	447	448	449	450	451	452	905	906	908	907	454	455	456	457	458	459	460	461	462	463	464	465	466	467	468	469	470	471	909	910	912	911	917	918	921	922	924	923	919	925	926	928	929	930	932	931	945	946	948	947	942	944	943	933	937	938	940	939	936	935	949	950	952	951	475	476	477	478	479	480	481	482	483	484	485	486	487	488	489	490	491	492	953	954	956	955	494	495	496	497	498	499	500	501	502	503	504	505	506	507	508	509	510	511	512	513	514	515	516	517	518	519	520	521	522	523	524	525	526	527	528	529	530	531	532	533	534	535	536	537	538	539	540	541	542	543	544	545	546	547	548	549	550	551	552	553	554	555	556	557	558	559	560	561	562	563	564	565	566	567	568	569	570	571	572	573	574	575	576	577	578	579	580	581	582	583	584	585	586	587	588	589	590	591	592	593	594	595	596	597	598	599	600	601	602	603	604	605	606	607	608	957	958	960	959	610	611	612	613	614	615	616	617	618	619	620	621	622	623	624	625	626	627	961	962	964	963	969	970	973	974	976	975	971	977	978	980	981	982	984	983	997	998	1000	999	994	996	995	985	989	990	992	991	988	987	1001	1002	1004	1003	631	632	633	634	635	636	637	638	639	640	641	642	643	644	645	646	647	648	1005	1006	1008	1007	650	651	652	653	654	655	656	657	658	659	660	661	662	663	664	665	666	667	668	669	670	671	672	673	674	675	676	677	678	679	680	681	682	683	684	685	686	687	688	689	690	691	692	693	694	695	696	697	698	699	700	701	702	703	704	705	706	707	708	709	710	711	712	713	714	715	716	717	718	719	720	721	722	723	724	725	726	727	728	729	730	731	732	733	734	735	736	737	738	739	740	741	742	743	744	745	746	747	748	749	750	751	752	753	754	755	756	757	758	759	760	761	762	763	764	765	766	767	768	769	770	771	772	773	774	775	776	777	778	779	780	781	782	783	784	785	786	787	788	789	790	791	792	793	794	795	796	797	798	799	800	</DataArray>
<DataArray type="Int32" Name="nodenumber" format="ascii">1	2	3	4	5	6	7	8	9	10	11	12	13	14	15	16	17	18	19	20	21	22	23	24	25	26	27	28	29	30	31	32	33	34	35	36	37	38	39	40	41	42	43	44	45	46	47	48	49	50	51	52	53	54	56	55	57	58	59	60	61	62	63	64	65	66	67	68	69	70	71	72	73	74	75	76	78	77	79	80	82	83	85	84	81	86	87	92	88	89	91	90	100	101	103	102	104	106	105	93	94	95	97	96	99	98	107	108	110	109	111	112	113	114	115	116	117	118	119	120	121	122	123	124	125	126	127	128	129	130	132	131	133	134	135	136	137	138	139	140	141	142	143	144	145	146	147	148	149	150	151	152	153	154	155	156	157	158	159	160	161	162	163	164	165	166	167	168	169	170	171	172	173	174	175	176	177	178	179	180	181	182	183	184	185	186	187	188	189	190	191	192	193	194	195	196	197	198	199	200	201	202	203	204	205	206	207	208	209	210	211	212	213	214	215	216	217	218	219	220	221	222	223	224	225	226	227	228	229	230	231	232	233	234	235	236	237	238	239	240	241	242	243	244	245	246	247	248	249	251	250	252	253	254	255	256	257	258	259	260	261	262	263	264	265	266	267	268	269	270	271	273	272	274	275	277	278	280	279	276	281	282	287	283	284	286	285	295	296	298	297	299	301	300	288	289	290	292	291	294	293	302	303	305	304	306	307	308	309	310	311	312	313	314	315	316	317	318	319	320	321	322	323	324	325	327	326	328	329	330	331	332	333	334	335	336	337	338	339	340	341	342	343	344	345	346	347	348	349	350	351	352	353	354	355	356	357	358	359	360	361	362	363	364	365	366	367	368	369	370	371	372	373	374	375	376	377	378	379	380	381	382	383	384	385	386	387	388	389	390	391	392	393	394	395	396	397	398	399	400	401	402	403	404	405	406	407	408	409	410	411	412	413	414	415	416	417	418	419	420	421	422	423	424	425	426	427	428	429	430	431	432	433	434	435	436	437	438	439	440	441	442	443	444	445	446	447	448	449	450	451	452	453	454	455	456	457	458	459	460	461	462	463	464	465	466	467	468	469	470	471	472	473	474	475	476	477	478	479	480	481	482	483	484	485	486	487	488	489	490	491	492	493	494	495	496	497	498	499	500	501	502	503	504	505	506	507	508	509	510	511	512	513	514	515	516	517	518	519	520	521	522	523	524	525	526	527	528	529	530	531	532	534	533	535	536	537	538	539	540	541	542	543	544	545	546	547	548	549	550	551	552	553	554	556	555	557	558	560	561	563	562	559	564	565	570	566	567	569	568	578	579	581	580	582	584	583	571	572	573	575	574	577	576	585	586	588	587	589	590	591	592	593	594	595	596	597	598	599	600	601	602	603	604	605	606	607	608	610	609	611	612	613	614	615	616	617	618	619	620	621	622	623	624	625	626	627	628	629	630	631	632	633	634	635	636	637	638	639	640	641	642	643	644	645	646	647	648	649	650	651	652	653	654	655	656	657	658	659	660	661	662	663	664	665	666	667	668	669	670	671	672	673	674	675	676	677	678	679	680	681	682	683	684	685	686	687	688	689	690	691	692	693	694	695	696	697	698	699	700	701	702	703	704	705	706	707	708	709	710	711	712	713	714	715	716	717	718	719	720	721	722	723	724	725	726	727	729	728	730	731	732	733	734	735	736	737	738	739	740	741	742	743	744	745	746	747	748	749	751	750	752	753	755	756	758	757	754	759	760	765	761	762	764	763	773	774	776	775	777	779	778	766	767	768	770	769	772	771	780	781	783	782	784	785	786	787	788	789	790	791	792	793	794	795	796	797	798	799	800	801	802	803	805	804	806	807	808	809	810	811	812	813	814	815	816	817	818	819	820	821	822	823	824	825	826	827	828	829	830	831	832	833	834	835	836	837	838	839	840	841	842	843	844	845	846	847	848	849	850	851	852	853	854	855	856	857	858	859	860	861	862	863	864	865	866	867	868	869	870	871	872	873	874	875	876	877	878	879	880	881	882	883	884	885	886	887	888	889	890	891	892	893	894	895	896	897	898	899	900	901	902	903	904	905	906	907	908	909	910	911	912	913	914	915	916	917	918	919	920	921	922	923	924	925	926	927	928	929	930	931	932	933	934	935	936	937	938	939	940	941	942	943	944	945	946	947	948	949	950	951	952	953	954	955	956	</DataArray>
<DataArray type="Int32" Name="layer" format="ascii">1	1	1	1	1	1	1	1	1	1	1	1	1	1	1	1	1	1	1	1	1	1	1	1	1	1	1	1	1	1	1	1	1	1	1	1	1	1	1	1	1	1	1	1	1	1	1	1	1	1	1	1	1	1	1	1	1	1	1	1	1	1	1	1	1	1	1	1	1	1	1	1	1	1	1	1	1	1	1	1	1	1	1	1	1	1	1	1	1	1	1	1	1	1	1	1	1	1	1	1	1	1	1	1	1	1	1	1	1	1	1	1	1	1	1	1	1	1	1	1	1	1	1	1	1	1	1	1	1	1	1	1	1	1	1	1	1	1	1	1	1	1	1	1	1	1	1	1	1	1	1	1	1	1	1	1	1	1	1	1	1	1	1	1	1	1	1	1	1	1	1	1	1	1	1	1	1	1	1	1	1	1	1	1	1	1	1	1	1	1	1	1	1	1	1	1	1	1	1	1	1	1	1	1	1	1	1	1	1	1	1	1	1	1	1	1	1	1	1	1	1	1	1	1	1	1	1	1	1	1	1	1	1	1	1	1	1	1	1	1	1	1	1	1	1	1	1	1	1	1	1	1	1	1	1	1	1	1	1	1	1	1	1	1	1	1	1	1	1	1	1	1	1	1	1	1	1	1	1	1	1	1	1	1	1	1	1	1	1	1	1	1	1	1	1	1	1	1	1	1	1	1	1	1	1	1	1	1	1	1	1	1	1	1	1	1	1	1	1	1	1	1	1	1	1	1	1	1	1	1	1	1	1	1	1	1	1	1	1	1	1	1	1	1	1	1	1	1	1	1	1	1	1	1	1	1	1	1	1	1	1	1	1	1	1	1	1	1	1	1	1	1	1	1	1	1	1	1	1	1	1	1	1	1	1	1	1	1	1	1	1	1	1	1	1	1	1	1	1	1	1	1	1	1	1	1	1	1	1	1	1	1	1	1	1	1	1	1	1	1	1	1	1	1	1	1	1	1	1	1	1	1	1	1	1	1	1	1	1	1	1	1	1	1	1	1	1	1	1	1	1	1	1	1	1	1	1	1	1	1	1	1	1	1	1	1	1	1	1	1	1	1	1	1	1	1	1	1	2	2	2	2	2	2	2	2	2	2	2	2	2	2	2	2	2	2	2	2	2	2	2	2	2	2	2	2	2	2	2	2	2	2	2	2	2	2	2	2	2	2	2	2	2	2	2	2	2	2	2	2	2	2	2	2	2	2	2	2	2	2	2	2	2	2	2	2	2	2	2	2	2	2	2	2	2	2	2	2	2	2	2	2	2	2	2	2	2	2	2	2	2	2	2	2	2	2	2	2	2	2	2	2	2	2	2	2	2	2	2	2	2	2	2	2	2	2	2	2	2	2	2	2	2	2	2	2	2	2	2	2	2	2	2	2	2	2	2	2	2	2	2	2	2	2	2	2	2	2	2	2	2	2	2	2	2	2	2	2	2	2	2	2	2	2	2	2	2	2	2	2	2	2	2	2	2	2	2	2	2	2	2	2	2	2	2	2	2	2	2	2	2	2	2	2	2	2	2	2	2	2	2	2	2	2	2	2	2	2	2	2	2	2	2	2	2	2	2	2	2	2	2	2	2	2	2	2	2	2	2	2	2	2	2	2	2	2	2	2	2	2	2	2	2	2	2	2	2	2	2	2	2	2	2	2	2	2	2	2	2	2	2	2	2	2	2	2	2	2	2	2	2	2	2	2	2	2	2	2	2	2	2	2	2	2	2	2	2	2	2	2	2	2	2	2	2	2	2	2	2	2	2	2	2	2	2	2	2	2	2	2	2	2	2	2	2	2	2	2	2	2	2	2	2	2	2	2	2	2	2	2	2	2	2	2	2	2	2	2	2	2	2	2	2	2	2	2	2	2	2	2	2	2	2	2	2	2	2	2	2	2	2	2	2	2	2	2	2	2	2	2	2	2	2	2	2	2	2	2	2	2	2	2	2	2	2	2	2	2	2	2	2	2	2	2	2	2	2	2	2	2	2	2	2	2	2	2	2	2	2	2	2	2	2	2	2	2	2	2	2	2	2	2	2	2	2	2	2	2	2	2	2	2	2	2	2	2	2	2	2	2	2	2	2	2	2	2	2	2	2	2	2	2	2	2	2	2	2	2	2	2	2	2	2	2	2	2	2	2	2	2	2	2	2	2	2	2	</DataArray>
<DataArray type="Int32" Name="row" format="ascii">1	1	1	1	1	1	1	1	1	1	1	1	1	1	1	1	1	1	1	1	2	2	2	2	2	2	2	2	2	2	2	2	2	2	2	2	2	2	2	2	3	3	3	3	3	3	3	3	3	3	3	3	3	3	3	3	3	3	3	3	3	3	3	4	4	4	4	4	4	4	4	4	4	4	4	4	4	4	4	4	4	4	4	4	4	4	4	4	4	4	4	4	4	4	4	4	4	4	4	4	4	4	4	4	4	4	4	4	4	4	4	4	4	4	4	4	5	5	5	5	5	5	5	5	5	5	5	5	5	5	5	5	5	5	5	5	5	5	5	6	6	6	6	6	6	6	6	6	6	6	6	6	6	6	6	6	6	6	6	7	7	7	7	7	7	7	7	7	7	7	7	7	7	7	7	7	7	7	7	8	8	8	8	8	8	8	8	8	8	8	8	8	8	8	8	8	8	8	8	9	9	9	9	9	9	9	9	9	9	9	9	9	9	9	9	9	9	9	9	10	10	10	10	10	10	10	10	10	10	10	10	10	10	10	10	10	10	10	10	11	11	11	11	11	11	11	11	11	11	11	11	11	11	11	11	11	11	11	11	11	11	11	12	12	12	12	12	12	12	12	12	12	12	12	12	12	12	12	12	12	12	12	12	12	12	12	12	12	12	12	12	12	12	12	12	12	12	12	12	12	12	12	12	12	12	12	12	12	12	12	12	12	12	12	12	13	13	13	13	13	13	13	13	13	13	13	13	13	13	13	13	13	13	13	13	13	13	13	14	14	14	14	14	14	14	14	14	14	14	14	14	14	14	14	14	14	14	14	15	15	15	15	15	15	15	15	15	15	15	15	15	15	15	15	15	15	15	15	16	16	16	16	16	16	16	16	16	16	16	16	16	16	16	16	16	16	16	16	17	17	17	17	17	17	17	17	17	17	17	17	17	17	17	17	17	17	17	17	18	18	18	18	18	18	18	18	18	18	18	18	18	18	18	18	18	18	18	18	19	19	19	19	19	19	19	19	19	19	19	19	19	19	19	19	19	19	19	19	20	20	20	20	20	20	20	20	20	20	20	20	20	20	20	20	20	20	20	20	1	1	1	1	1	1	1	1	1	1	1	1	1	1	1	1	1	1	1	1	2	2	2	2	2	2	2	2	2	2	2	2	2	2	2	2	2	2	2	2	3	3	3	3	3	3	3	3	3	3	3	3	3	3	3	3	3	3	3	3	3	3	3	4	4	4	4	4	4	4	4	4	4	4	4	4	4	4	4	4	4	4	4	4	4	4	4	4	4	4	4	4	4	4	4	4	4	4	4	4	4	4	4	4	4	4	4	4	4	4	4	4	4	4	4	4	5	5	5	5	5	5	5	5	5	5	5	5	5	5	5	5	5	5	5	5	5	5	5	6	6	6	6	6	6	6	6	6	6	6	6	6	6	6	6	6	6	6	6	7	7	7	7	7	7	7	7	7	7	7	7	7	7	7	7	7	7	7	7	8	8	8	8	8	8	8	8	8	8	8	8	8	8	8	8	8	8	8	8	9	9	9	9	9	9	9	9	9	9	9	9	9	9	9	9	9	9	9	9	10	10	10	10	10	10	10	10	10	10	10	10	10	10	10	10	10	10	10	10	11	11	11	11	11	11	11	11	11	11	11	11	11	11	11	11	11	11	11	11	11	11	11	12	12	12	12	12	12	12	12	12	12	12	12	12	12	12	12	12	12	12	12	12	12	12	12	12	12	12	12	12	12	12	12	12	12	12	12	12	12	12	12	12	12	12	12	12	12	12	12	12	12	12	12	12	13	13	13	13	13	13	13	13	13	13	13	13	13	13	13	13	13	13	13	13	13	13	13	14	14	14	14	14	14	14	14	14	14	14	14	14	14	14	14	14	14	14	14	15	15	15	15	15	15	15	15	15	15	15	15	15	15	15	15	15	15	15	15	16	16	16	16	16	16	16	16	16	16	16	16	16	16	16	16	16	16	16	16	17	17	17	17	17	17	17	17	17	17	17	17	17	17	17	17	17	17	17	17	18	18	18	18	18	18	18	18	18	18	18	18	18	18	18	18	18	18	18	18	19	19	19	19	19	19	19	19	19	19	19	19	19	19	19	19	19	19	19	19	20	20	20	20	20	20	20	20	20	20	20	20	20	20	20	20	20	20	20	20	</DataArray>
<DataArray type="Int32" Name="col" format="ascii">1	2	3	4	5	6	7	8	9	10	11	12	13	14	15	16	17	18	19	20	1	2	3	4	5	6	7	8	9	10	11	12	13	14	15	16	17	18	19	20	1	2	3	4	5	6	7	8	9	10	11	12	13	13	13	13	14	15	16	17	18	19	20	1	2	3	4	5	6	7	8	9	10	11	12	12	12	12	13	13	13	13	13	13	13	13	13	13	13	13	13	13	13	13	13	13	13	13	13	13	13	13	13	13	13	13	14	14	14	14	15	16	17	18	19	20	1	2	3	4	5	6	7	8	9	10	11	12	13	13	13	13	14	15	16	17	18	19	20	1	2	3	4	5	6	7	8	9	10	11	12	13	14	15	16	17	18	19	20	1	2	3	4	5	6	7	8	9	10	11	12	13	14	15	16	17	18	19	20	1	2	3	4	5	6	7	8	9	10	11	12	13	14	15	16	17	18	19	20	1	2	3	4	5	6	7	8	9	10	11	12	13	14	15	16	17	18	19	20	1	2	3	4	5	6	7	8	9	10	11	12	13	14	15	16	17	18	19	20	1	2	3	4	5	6	7	8	9	9	9	9	10	11	12	13	14	15	16	17	18	19	20	1	2	3	4	5	6	7	8	8	8	8	9	9	9	9	9	9	9	9	9	9	9	9	9	9	9	9	9	9	9	9	9	9	9	9	9	9	9	9	10	10	10	10	11	12	13	14	15	16	17	18	19	20	1	2	3	4	5	6	7	8	9	9	9	9	10	11	12	13	14	15	16	17	18	19	20	1	2	3	4	5	6	7	8	9	10	11	12	13	14	15	16	17	18	19	20	1	2	3	4	5	6	7	8	9	10	11	12	13	14	15	16	17	18	19	20	1	2	3	4	5	6	7	8	9	10	11	12	13	14	15	16	17	18	19	20	1	2	3	4	5	6	7	8	9	10	11	12	13	14	15	16	17	18	19	20	1	2	3	4	5	6	7	8	9	10	11	12	13	14	15	16	17	18	19	20	1	2	3	4	5	6	7	8	9	10	11	12	13	14	15	16	17	18	19	20	1	2	3	4	5	6	7	8	9	10	11	12	13	14	15	16	17	18	19	20	1	2	3	4	5	6	7	8	9	10	11	12	13	14	15	16	17	18	19	20	1	2	3	4	5	6	7	8	9	10	11	12	13	14	15	16	17	18	19	20	1	2	3	4	5	6	7	8	9	10	11	12	13	13	13	13	14	15	16	17	18	19	20	1	2	3	4	5	6	7	8	9	10	11	12	12	12	12	13	13	13	13	13	13	13	13	13	13	13	13	13	13	13	13	13	13	13	13	13	13	13	13	13	13	13	13	14	14	14	14	15	16	17	18	19	20	1	2	3	4	5	6	7	8	9	10	11	12	13	13	13	13	14	15	16	17	18	19	20	1	2	3	4	5	6	7	8	9	10	11	12	13	14	15	16	17	18	19	20	1	2	3	4	5	6	7	8	9	10	11	12	13	14	15	16	17	18	19	20	1	2	3	4	5	6	7	8	9	10	11	12	13	14	15	16	17	18	19	20	1	2	3	4	5	6	7	8	9	10	11	12	13	14	15	16	17	18	19	20	1	2	3	4	5	6	7	8	9	10	11	12	13	14	15	16	17	18	19	20	1	2	3	4	5	6	7	8	9	9	9	9	10	11	12	13	14	15	16	17	18	19	20	1	2	3	4	5	6	7	8	8	8	8	9	9	9	9	9	9	9	9	9	9	9	9	9	9	9	9	9	9	9	9	9	9	9	9	9	9	9	9	10	10	10	10	11	12	13	14	15	16	17	18	19	20	1	2	3	4	5	6	7	8	9	9	9	9	10	11	12	13	14	15	16	17	18	19	20	1	2	3	4	5	6	7	8	9	10	11	12	13	14	15	16	17	18	19	20	1	2	3	4	5	6	7	8	9	10	11	12	13	14	15	16	17	18	19	20	1	2	3	4	5	6	7	8	9	10	11	12	13	14	15	16	17	18	19	20	1	2	3	4	5	6	7	8	9	10	11	12	13	14	15	16	17	18	19	20	1	2	3	4	5	6	7	8	9	10	11	12	13	14	15	16	17	18	19	20	1	2	3	4	5	6	7	8	9	10	11	12	13	14	15	16	17	18	19	20	1	2	3	4	5	6	7	8	9	10	11	12	13	14	15	16	17	18	19	20	</DataArray>
<DataArray type="Int32" Name="vtkid" format="ascii">0	1	2	3	4	5	6	7	8	9	10	11	12	13	14	15	16	17	18	19	20	21	22	23	24	25	26	27	28	29	30	31	32	33	34	35	36	37	38	39	40	41	42	43	44	45	46	47	48	49	50	51	52	53	54	55	56	57	58	59	60	61	62	63	64	65	66	67	68	69	70	71	72	73	74	75	76	77	78	79	80	81	82	83	84	85	86	87	88	89	90	91	92	93	94	95	96	97	98	99	100	101	102	103	104	105	106	107	108	109	110	111	112	113	114	115	116	117	118	119	120	121	122	123	124	125	126	127	128	129	130	131	132	133	134	135	136	137	138	139	140	141	142	143	144	145	146	147	148	149	150	151	152	153	154	155	156	157	158	159	160	161	162	163	164	165	166	167	168	169	170	171	172	173	174	175	176	177	178	179	180	181	182	183	184	185	186	187	188	189	190	191	192	193	194	195	196	197	198	199	200	201	202	203	204	205	206	207	208	209	210	211	212	213	214	215	216	217	218	219	220	221	222	223	224	225	226	227	228	229	230	231	232	233	234	235	236	237	238	239	240	241	242	243	244	245	246	247	248	249	250	251	252	253	254	255	256	257	258	259	260	261	262	263	264	265	266	267	268	269	270	271	272	273	274	275	276	277	278	279	280	281	282	283	284	285	286	287	288	289	290	291	292	293	294	295	296	297	298	299	300	301	302	303	304	305	306	307	308	309	310	311	312	313	314	315	316	317	318	319	320	321	322	323	324	325	326	327	328	329	330	331	332	333	334	335	336	337	338	339	340	341	342	343	344	345	346	347	348	349	350	351	352	353	354	355	356	357	358	359	360	361	362	363	364	365	366	367	368	369	370	371	372	373	374	375	376	377	378	379	380	381	382	383	384	385	386	387	388	389	390	391	392	393	394	395	396	397	398	399	400	401	402	403	404	405	406	407	408	409	410	411	412	413	414	415	416	417	418	419	420	421	422	423	424	425	426	427	428	429	430	431	432	433	434	435	436	437	438	439	440	441	442	443	444	445	446	447	448	449	450	451	452	453	454	455	456	457	458	459	460	461	462	463	464	465	466	467	468	469	470	471	472	473	474	475	476	477	478	479	480	481	482	483	484	485	486	487	488	489	490	491	492	493	494	495	496	497	498	499	500	501	502	503	504	505	506	507	508	509	510	511	512	513	514	515	516	517	518	519	520	521	522	523	524	525	526	527	528	529	530	531	532	533	534	535	536	537	538	539	540	541	542	543	544	545	546	547	548	549	550	551	552	553	554	555	556	557	558	559	560	561	562	563	564	565	566	567	568	569	570	571	572	573	574	575	576	577	578	579	580	581	582	583	584	585	586	587	588	589	590	591	592	593	594	595	596	597	598	599	600	601	602	603	604	605	606	607	608	609	610	611	612	613	614	615	616	617	618	619	620	621	622	623	624	625	626	627	628	629	630	631	632	633	634	635	636	637	638	639	640	641	642	643	644	645	646	647	648	649	650	651	652	653	654	655	656	657	658	659	660	661	662	663	664	665	666	667	668	669	670	671	672	673	674	675	676	677	678	679	680	681	682	683	684	685	686	687	688	689	690	691	692	693	694	695	696	697	698	699	700	701	702	703	704	705	706	707	708	709	710	711	712	713	714	715	716	717	718	719	720	721	722	723	724	725	726	727	728	729	730	731	732	733	734	735	736	737	738	739	740	741	742	743	744	745	746	747	748	749	750	751	752	753	754	755	756	757	758	759	760	761	762	763	764	765	766	767	768	769	770	771	772	773	774	775	776	777	778	779	780	781	782	783	784	785	786	787	788	789	790	791	792	793	794	795	796	797	798	799	800	801	802	803	804	805	806	807	808	809	810	811	812	813	814	815	816	817	818	819	820	821	822	823	824	825	826	827	828	829	830	831	832	833	834	835	836	837	838	839	840	841	842	843	844	845	846	847	848	849	850	851	852	853	854	855	856	857	858	859	860	861	862	863	864	865	866	867	868	869	870	871	872	873	874	875	876	877	878	879	880	881	882	883	884	885	886	887	888	889	890	891	892	893	894	895	896	897	898	899	900	901	902	903	904	905	906	907	908	909	910	911	912	913	914	915	916	917	918	919	920	921	922	923	924	925	926	927	928	929	930	931	932	933	934	935	936	937	938	939	940	941	942	943	944	945	946	947	948	949	950	951	952	953	954	955	</DataArray>